# vtk DataFile Version 2.0
static_11_uploaded_810624b3-6b26-425a-bc9a-75af89c8d57b.vtk
ASCII
DATASET UNSTRUCTURED_GRID
POINTS 994 float
-17.50000000 .00000000 .00000000
-16.50000000 .00000000 .00000000
-.50000000 .00000000 .00000000
.50000000 .00000000 .00000000
16.50000000 .00000000 .00000000
17.50000000 .00000000 .00000000
-17.50000000 1.00000000 .00000000
-16.50000000 1.00000000 .00000000
-.50000000 1.00000000 .00000000
.50000000 1.00000000 .00000000
16.50000000 1.00000000 .00000000
17.50000000 1.00000000 .00000000
-17.50000000 9.00000000 .00000000
-16.50000000 9.00000000 .00000000
-.50000000 9.00000000 .00000000
.50000000 9.00000000 .00000000
16.50000000 9.00000000 .00000000
17.50000000 9.00000000 .00000000
-17.50000000 10.00000000 .00000000
-16.50000000 10.00000000 .00000000
-.50000000 10.00000000 .00000000
.50000000 10.00000000 .00000000
16.50000000 10.00000000 .00000000
17.50000000 10.00000000 .00000000
-17.50010598 -.00005541 1.37484171
-16.50007713 -.00004342 1.37495200
-.50002736 -.00007906 1.37480585
.50002736 -.00007906 1.37480585
16.50007713 -.00004342 1.37495200
17.50010598 -.00005541 1.37484171
-17.50009699 .99998197 1.37488829
-16.50008059 .99996445 1.37499858
-.50001815 .99996644 1.37487470
.50001815 .99996644 1.37487470
16.50008059 .99996445 1.37499858
17.50009699 .99998197 1.37488829
-17.50009434 9.00001705 1.37489067
-16.50007818 9.00003420 1.37499790
-.50001754 9.00003429 1.37487904
.50001754 9.00003429 1.37487904
16.50007818 9.00003420 1.37499790
17.50009434 9.00001705 1.37489067
-17.50010309 10.00005349 1.37484604
-16.50007505 10.00004196 1.37495328
-.50002671 10.00007854 1.37481028
.50002671 10.00007854 1.37481028
16.50007505 10.00004196 1.37495328
17.50010309 10.00005349 1.37484604
-17.50031557 -.00013631 2.74970543
-16.50029588 -.00013747 2.74988378
-.50001973 -.00020748 2.74960575
.50001973 -.00020748 2.74960575
16.50029588 -.00013747 2.74988378
17.50031557 -.00013631 2.74970543
-17.50030820 .99988591 2.74978072
-16.50029219 .99987601 2.74995907
-.50001702 .99982928 2.74971698
.50001702 .99982928 2.74971698
16.50029219 .99987601 2.74995907
17.50030820 .99988591 2.74978072
-17.50029962 9.00010887 2.74978522
-16.50028386 9.00011875 2.74995862
-.50001655 9.00017099 2.74972604
.50001655 9.00017099 2.74972604
16.50028386 9.00011875 2.74995862
17.50029962 9.00010887 2.74978522
-17.50030689 10.00013054 2.74971370
-16.50028783 10.00013191 2.74988710
-.50001916 10.00020671 2.74961546
.50001916 10.00020671 2.74961546
16.50028783 10.00013191 2.74988710
17.50030689 10.00013054 2.74971370
-17.50058807 -.00024732 4.12460986
-16.50057048 -.00025613 4.12480653
-.50001856 -.00037746 4.12442846
.50001856 -.00037746 4.12442846
16.50057048 -.00025613 4.12480653
17.50058807 -.00024732 4.12460986
-17.50058001 .99976999 4.12469280
-16.50056195 .99976220 4.12488946
-.50001890 .99965995 4.12455093
.50001890 .99965995 4.12455093
16.50056195 .99976220 4.12488946
17.50058001 .99976999 4.12469280
-17.50056384 9.00021841 4.12469882
-16.50054606 9.00022634 4.12489003
-.50001844 9.00033884 4.12456433
.50001844 9.00033884 4.12456433
16.50054606 9.00022634 4.12489003
17.50056384 9.00021841 4.12469882
-17.50057187 10.00023528 4.12462118
-16.50055489 10.00024421 4.12481239
-.50001794 10.00037517 4.12444360
.50001794 10.00037517 4.12444360
16.50055489 10.00024421 4.12481239
17.50057187 10.00023528 4.12462118
-17.50085203 -.00035387 5.49955152
-16.50083787 -.00037148 5.49971839
-.50001606 -.00054143 5.49926891
.50001606 -.00054143 5.49926891
16.50083787 -.00037148 5.49971839
17.50085203 -.00035387 5.49955152
-17.50084375 .99965654 5.49962173
-16.50082400 .99965205 5.49978864
-.50002023 .99949511 5.49937250
.50002023 .99949511 5.49937250
16.50082400 .99965205 5.49978864
17.50084375 .99965654 5.49962173
-17.50082023 9.00032350 5.49962874
-16.50080078 9.00032836 5.49979103
-.50001981 9.00050033 5.49939001
.50001981 9.00050033 5.49939001
16.50080078 9.00032836 5.49979103
17.50082023 9.00032350 5.49962874
-17.50082855 10.00033365 5.49956511
-16.50081497 10.00035126 5.49972736
-.50001542 10.00053579 5.49928976
.50001542 10.00053579 5.49928976
16.50081497 10.00035126 5.49972736
17.50082855 10.00033365 5.49956511
-17.50104181 -.00042890 6.87453102
-16.50103077 -.00045534 6.87461968
-.50001442 -.00065847 6.87412784
.50001442 -.00065847 6.87412784
16.50103077 -.00045534 6.87461968
17.50104181 -.00042890 6.87453102
-17.50103334 .99957485 6.87456807
-16.50101170 .99957351 6.87465661
-.50002214 .99937696 6.87418223
.50002214 .99937696 6.87418223
16.50101170 .99957351 6.87465661
17.50103334 .99957485 6.87456807
-17.50100453 9.00039528 6.87457552
-16.50098323 9.00039719 6.87466163
-.50002173 9.00061257 6.87420359
.50002173 9.00061257 6.87420359
16.50098323 9.00039719 6.87466163
17.50100453 9.00039528 6.87457552
-17.50101311 10.00039893 6.87454607
-16.50100262 10.00042524 6.87463229
-.50001373 10.00064693 6.87415466
.50001373 10.00064693 6.87415466
16.50100262 10.00042524 6.87463229
17.50101311 10.00039893 6.87454607
-17.50109086 -.00044470 8.24954835
-16.50108331 -.00047866 8.24951055
-.50000961 -.00068799 8.24900604
.50000961 -.00068799 8.24900604
16.50108331 -.00047866 8.24951055
17.50109086 -.00044470 8.24954835
-17.50108158 .99955299 8.24953172
-16.50105885 .99955432 8.24949384
-.50002145 .99934841 8.24898081
.50002145 .99934841 8.24898081
16.50105885 .99955432 8.24949384
17.50108158 .99955299 8.24953172
-17.50105141 9.00040599 8.24953908
-16.50102903 9.00040542 8.24950227
-.50002116 9.00063197 8.24900574
.50002116 9.00063197 8.24900574
16.50102903 9.00040542 8.24950227
17.50105141 9.00040599 8.24953908
-17.50106086 10.00040373 8.24956406
-16.50105384 10.00043748 8.24952735
-.50000897 10.00066726 8.24903906
.50000897 10.00066726 8.24903906
16.50105384 10.00043748 8.24952735
17.50106086 10.00040373 8.24956406
-17.50093230 -.00037041 9.62460416
-16.50092627 -.00041768 9.62438839
-.50002042 -.00058354 9.62389815
.50002042 -.00058354 9.62389815
16.50092627 -.00041768 9.62438839
17.50093230 -.00037041 9.62460416
-17.50092476 .99961861 9.62451105
-16.50089681 .99962545 9.62429935
-.50003392 .99944572 9.62376359
.50003392 .99944572 9.62376359
16.50089681 .99962545 9.62429935
17.50092476 .99961861 9.62451105
-17.50089894 9.00032834 9.62451774
-16.50087148 9.00032257 9.62431209
-.50003325 9.00052145 9.62379199
.50003325 9.00052145 9.62379199
16.50087148 9.00032257 9.62431209
17.50089894 9.00032834 9.62451774
-17.50090683 10.00031764 9.62461977
-16.50090129 10.00036439 9.62440993
-.50001932 10.00054977 9.62393778
.50001932 10.00054977 9.62393778
16.50090129 10.00036439 9.62440993
17.50090683 10.00031764 9.62461977
-17.50049704 -.00018619 10.99968922
-16.50050444 -.00022496 10.99927431
-14.50048207 -.00031939 10.99825341
-12.50035193 -.00042921 10.99744730
-10.50016707 -.00050188 10.99696728
-8.49997195 -.00053189 10.99688251
-6.49980780 -.00051850 10.99717096
-4.49971611 -.00046196 10.99772951
-2.49974579 -.00037994 10.99836834
-.49995252 -.00031964 10.99883483
.49995252 -.00031964 10.99883483
2.49974579 -.00037994 10.99836834
4.49971611 -.00046196 10.99772951
6.49980780 -.00051850 10.99717096
8.49997195 -.00053189 10.99688251
10.50016707 -.00050188 10.99696728
12.50035193 -.00042921 10.99744730
14.50048207 -.00031939 10.99825341
16.50050444 -.00022496 10.99927431
17.50049704 -.00018619 10.99968922
-17.50048419 .99980332 10.99952274
-16.50047280 .99979807 10.99907126
-14.50043635 .99966516 10.99798484
-12.50031827 .99954629 10.99710684
-10.50014991 .99946752 10.99657092
-8.49997101 .99943918 10.99646094
-6.49982293 .99946110 10.99675654
-4.49974669 .99953205 10.99735479
-2.49978082 .99964107 10.99804386
-.49997890 .99972967 10.99855788
.49997890 .99972967 10.99855788
2.49978082 .99964107 10.99804386
4.49974669 .99953205 10.99735479
6.49982293 .99946110 10.99675654
8.49997101 .99943918 10.99646094
10.50014991 .99946752 10.99657092
12.50031827 .99954629 10.99710684
14.50043635 .99966516 10.99798484
16.50047280 .99979807 10.99907126
17.50048419 .99980332 10.99952274
-17.50050401 1.99979803 10.99931832
-16.50051052 1.99981653 10.99879774
-.50000288 1.99974144 10.99823528
.50000288 1.99974144 10.99823528
16.50051052 1.99981653 10.99879774
17.50050401 1.99979803 10.99931832
-17.50053195 2.99983327 10.99913685
-16.50054555 2.99985113 10.99859429
-.49999189 2.99978827 10.99797471
.49999189 2.99978827 10.99797471
16.50054555 2.99985113 10.99859429
17.50053195 2.99983327 10.99913685
-17.50054969 3.99989291 10.99901583
-16.50056841 3.99990234 10.99845568
-.49998929 3.99986987 10.99779778
.49998929 3.99986987 10.99779778
16.50056841 3.99990234 10.99845568
17.50054969 3.99989291 10.99901583
-17.50055466 4.99996431 10.99897255
-16.50057523 4.99996326 10.99840805
-.49998766 4.99996874 10.99773661
.49998766 4.99996874 10.99773661
16.50057523 4.99996326 10.99840805
17.50055466 4.99996431 10.99897255
-17.50054574 6.00003612 10.99901429
-16.50056476 6.00002464 10.99845779
-.49998902 6.00006839 10.99780159
.49998902 6.00006839 10.99780159
16.50056476 6.00002464 10.99845779
17.50054574 6.00003612 10.99901429
-17.50052420 7.00009701 10.99913483
-16.50053833 7.00007724 10.99859945
-.49999146 7.00015226 10.99798387
.49999146 7.00015226 10.99798387
16.50053833 7.00007724 10.99859945
17.50052420 7.00009701 10.99913483
-17.50049260 8.00013432 10.99931777
-16.50050022 8.00011428 10.99880791
-.50000166 8.00020302 10.99825268
.50000166 8.00020302 10.99825268
16.50050022 8.00011428 10.99880791
17.50049260 8.00013432 10.99931777
-17.50047074 9.00013101 10.99952824
-16.50045929 9.00013712 10.99908862
-14.50042215 9.00027723 10.99802858
-12.50030772 9.00039833 10.99717553
-10.50014398 9.00047773 10.99665645
-8.49996965 9.00050857 10.99655206
-6.49982582 9.00049213 10.99684143
-4.49975339 9.00042769 10.99742252
-2.49978962 9.00031986 10.99808899
-.49998036 9.00021993 10.99858857
.49998036 9.00021993 10.99858857
2.49978962 9.00031986 10.99808899
4.49975339 9.00042769 10.99742252
6.49982582 9.00049213 10.99684143
8.49996965 9.00050857 10.99655206
[...]
CELL_DATA 414
SCALARS cell_scalars float
LOOKUP_TABLE default
-117.50096214
-232.61390616
-117.50096214
-114.86856358
-226.29450837
-114.86856358
20.37611001
40.31964344
20.37611001
19.91960526
39.22445084
19.91960526
-3.52218172
-6.87898588
-3.52218172
-3.44322360
-6.69299509
-3.44322360
.54653995
.61731308
.54653995
.53418225
.60518721
.53418225
.26246035
2.83799928
.26246035
.25641154
2.73643066
.25641154
-2.04153817
-15.71271645
-2.04153817
-1.99095775
-15.15563564
-1.99095775
11.56283982
82.20852466
11.56283982
11.25767365
79.27547570
11.25767365
-65.22338329
-433.63904283
-65.22338329
-63.41069163
-418.06430726
-63.41069163
26.31087761
63.65716173
300.91123966
419.54990279
443.18611328
366.01638271
188.14565806
-87.46340036
-492.79910973
-246.64986379
-492.79910973
-87.46340036
188.14565806
366.01638271
443.18611328
419.54990279
300.91123966
63.65716173
26.31087761
7.29133727
-93.85311641
7.29133727
-12.23167493
-46.53181815
-12.23167493
-8.79643078
-77.37132378
-8.79643078
-8.54111669
-79.97934814
-8.54111669
-8.54084196
-79.83065773
-8.54084196
-8.72505706
-76.65364483
-8.72505706
-12.63648604
-47.37155691
-12.63648604
8.72760983
-87.16448837
8.72760983
27.07033485
64.81667391
293.84504463
408.37480001
430.54138109
355.22855944
182.57417559
-84.20669794
-475.92784911
-243.17601224
-475.92784911
-84.20669794
182.57417559
355.22855944
430.54138109
408.37480001
293.84504463
64.81667391
27.07033485
-6.83187872
-15.87256159
-57.39105738
-91.48080168
-107.65864696
-85.94836267
-29.57569553
42.98363542
161.03584669
-75.29010266
161.03584669
42.98363542
-29.57569553
-85.94836267
-107.65864696
-91.48080168
-57.39105738
-15.87256160
-6.83187872
20.73726341
4.08276491
-85.10362114
-122.00803409
-137.54085111
-115.33691049
-58.03682864
22.94729668
179.79898913
258.73566060
179.79898913
22.94729668
-58.03682864
-115.33691049
-137.54085111
-122.00803409
-85.10362114
4.08276491
20.73726341
102.93911687
63.76816305
-137.48220575
-195.27757139
-212.72812420
-188.53458694
-122.06235208
-4.62877386
299.42693226
714.97801068
299.42693226
-4.62877386
-122.06235208
-188.53458695
-212.72812420
-195.27757139
-137.48220575
63.76816305
102.93911687
72.14781825
7.44689047
-146.36870026
-206.38809845
-216.57538531
-191.49469798
-128.80303807
-5.28844322
273.36893921
599.71240432
273.36893921
-5.28844322
-128.80303807
-191.49469798
-216.57538531
-206.38809845
-146.36870026
7.44689047
72.14781825
3.61578841
-74.64681232
-129.77828336
-179.54603033
-185.23983055
-158.16113847
-96.71121625
19.26144771
150.81299774
381.98895896
150.81299774
19.26144772
-96.71121625
-158.16113848
-185.23983055
-179.54603034
-129.77828336
-74.64681232
3.61578841
6.48924315
-96.43928129
-143.76803283
-164.94791683
-164.79821597
-136.64113276
-80.27477719
-5.20391574
73.50025641
379.36692136
73.50025641
-5.20391574
-80.27477719
-136.64113276
-164.79821597
-164.94791683
-143.76803283
-96.43928129
6.48924315
7.12978330
-99.74327518
-151.07315861
-161.21473369
-154.54588458
-125.77447989
-76.89543491
-23.82673789
46.54093280
373.01095764
46.54093280
-23.82673789
-76.89543491
-125.77447989
-154.54588458
-161.21473369
-151.07315861
-99.74327518
7.12978330
7.01475627
-99.95851740
-151.19183915
-160.95812612
-153.92968973
-125.17705595
-76.85219962
-24.48579189
45.63554204
371.55464409
45.63554204
-24.48579189
-76.85219962
-125.17705595
-153.92968973
-160.95812612
-151.19183915
-99.95851740
7.01475627
6.08241002
-97.30410735
-144.14407985
-164.12302216
-162.87537894
-134.66781788
-79.83189877
-7.18593942
70.43793587
374.76355088
70.43793587
-7.18593942
-79.83189877
-134.66781788
-162.87537894
-164.12302216
-144.14407985
-97.30410734
6.08241001
2.75804423
-76.69277598
-130.40190707
-177.84293614
-181.79444730
-154.35356713
-94.75165744
16.37789905
143.83887163
373.73898265
143.83887163
16.37789905
-94.75165744
-154.35356713
-181.79444730
-177.84293613
-130.40190707
-76.69277598
2.75804423
70.10074920
3.08678251
-146.65906962
-203.26362018
-211.84095086
-185.73984847
-123.41530917
-5.76557965
259.53107799
581.85338126
259.53107799
-5.76557965
-123.41530916
-185.73984847
-211.84095086
-203.26362018
-146.65906962
3.08678251
70.10074920
90.84614909
53.01965976
-134.88185882
-189.55817168
-207.26097965
-181.41250121
-112.34455147
1.17504528
279.13324373
647.95050939
279.13324373
1.17504528
-112.34455147
-181.41250121
-207.26097964
-189.55817167
-134.88185882
53.01965976
90.84614909
21.88643180
3.98294552
-91.00192169
-132.51450749
-151.79312469
-126.80868755
-60.18498589
29.82643833
195.98844561
276.75144292
195.98844560
29.82643833
-60.18498588
-126.80868754
-151.79312469
-132.51450748
-91.00192169
3.98294552
21.88643180
-5.95435723
-9.65058363
-73.47501842
-116.98348260
-138.14604227
-112.64990159
-43.07691662
41.42466347
199.05786549
30.06857167
199.05786549
41.42466347
-43.07691662
-112.64990159
-138.14604227
-116.98348260
-73.47501842
-9.65058363
-5.95435723
-24.70653133
-166.03132823
-431.70639570
-632.04752399
-680.77936167
-555.69185035
-257.11640928
185.23209119
631.98776423
941.94683613
631.98776423
185.23209119
-257.11640929
-555.69185035
-680.77936167
-632.04752399
-431.70639570
-166.03132822
-24.70653133
-16.28592084
-159.43045088
-447.33197316
-656.94332290
-706.95486246
-580.65026040
-277.29339280
184.35968438
681.00918872
1025.38599069
681.00918872
184.35968438
-277.29339280
-580.65026040
-706.95486246
-656.94332290
-447.33197316
-159.43045088
-16.28592084
